/*--------------------------------*- C++ -*----------------------------------*\
| =========                 |                                                 |
| \\      /  F ield         | OpenFOAM: The Open Source CFD Toolbox           |
|  \\    /   O peration     | Version:  v2012                                 |
|   \\  /    A nd           | Website:  www.openfoam.com                      |
|    \\/     M anipulation  |                                                 |
\*---------------------------------------------------------------------------*/
FoamFile
{
    version     2.0;
    format      ascii;
    class       volScalarField;
    location    "3600";
    object      p;
}
// * * * * * * * * * * * * * * * * * * * * * * * * * * * * * * * * * * * * * //

dimensions      [1 -1 -2 0 0 0 0];


internalField   nonuniform List<scalar> 
80
(
100401
100396
100391
100386
100381
100376
100371
100366
100361
100356
100351
100346
100341
100336
100331
100326
100321
100316
100311
100306
100300
100295
100290
100285
100280
100275
100270
100265
100260
100255
100250
100245
100240
100235
100230
100225
100220
100215
100210
100205
100200
100195
100189
100184
100179
100174
100169
100164
100159
100154
100149
100144
100139
100134
100129
100124
100119
100114
100109
100104
100099
100094
100088
100083
100078
100073
100068
100063
100058
100053
100048
100043
100038
100033
100028
100023
100018
100013
100008
100003
)
;

boundaryField
{
    floor
    {
        type            fixedFluxExtrapolatedPressure;
        gradient        uniform 1549.75;
        value           uniform 100404;
    }
    ceiling
    {
        type            fixedValue;
        value           uniform 100000;
    }
    frontAndBack
    {
        type            empty;
    }
}


// ************************************************************************* //
