/*--------------------------------*- C++ -*----------------------------------*\
| =========                 |                                                 |
| \\      /  F ield         | OpenFOAM: The Open Source CFD Toolbox           |
|  \\    /   O peration     | Version:  v2012                                 |
|   \\  /    A nd           | Website:  www.openfoam.com                      |
|    \\/     M anipulation  |                                                 |
\*---------------------------------------------------------------------------*/
FoamFile
{
    version     2.0;
    format      ascii;
    class       volScalarField;
    location    "3600";
    object      rho;
}
// * * * * * * * * * * * * * * * * * * * * * * * * * * * * * * * * * * * * * //

dimensions      [1 -3 0 0 0 0 0];


internalField   nonuniform List<scalar> 
80
(
0.472875
0.472851
0.472828
0.472804
0.47278
0.472757
0.472733
0.472709
0.472686
0.472662
0.472639
0.472615
0.472591
0.472568
0.472544
0.472521
0.472497
0.472473
0.47245
0.472426
0.472403
0.472379
0.472356
0.472332
0.472309
0.472285
0.472261
0.472238
0.472215
0.472191
0.472168
0.472144
0.472121
0.472097
0.472074
0.47205
0.472027
0.472004
0.47198
0.471957
0.471934
0.47191
0.471887
0.471864
0.471841
0.471817
0.471794
0.471771
0.471748
0.471725
0.471702
0.471678
0.471655
0.471632
0.471609
0.471586
0.471563
0.47154
0.471517
0.471495
0.471472
0.471449
0.471426
0.471403
0.47138
0.471357
0.471335
0.471312
0.471289
0.471266
0.471244
0.471221
0.471198
0.471176
0.471153
0.47113
0.471107
0.471085
0.471062
0.47104
)
;

boundaryField
{
    floor
    {
        type            calculated;
        value           uniform 0.472887;
    }
    ceiling
    {
        type            calculated;
        value           uniform 0.471028;
    }
    frontAndBack
    {
        type            empty;
    }
}


// ************************************************************************* //
