/*--------------------------------*- C++ -*----------------------------------*\
| =========                 |                                                 |
| \\      /  F ield         | OpenFOAM: The Open Source CFD Toolbox           |
|  \\    /   O peration     | Version:  v2012                                 |
|   \\  /    A nd           | Website:  www.openfoam.com                      |
|    \\/     M anipulation  |                                                 |
\*---------------------------------------------------------------------------*/
FoamFile
{
    version     2.0;
    format      ascii;
    class       volVectorField;
    location    "3600";
    object      U;
}
// * * * * * * * * * * * * * * * * * * * * * * * * * * * * * * * * * * * * * //

dimensions      [0 1 -1 0 0 0 0];


internalField   nonuniform List<vector> 
80
(
(0 2.87664 0)
(0 2.87678 0)
(0 2.87695 0)
(0 2.87709 0)
(0 2.87723 0)
(0 2.87737 0)
(0 2.87752 0)
(0 2.87766 0)
(0 2.87781 0)
(0 2.87795 0)
(0 2.87809 0)
(0 2.87824 0)
(0 2.87838 0)
(0 2.87853 0)
(0 2.87867 0)
(0 2.87881 0)
(0 2.87896 0)
(0 2.8791 0)
(0 2.87924 0)
(0 2.87939 0)
(0 2.87953 0)
(0 2.87968 0)
(0 2.87982 0)
(0 2.87996 0)
(0 2.88011 0)
(0 2.88025 0)
(0 2.88039 0)
(0 2.88054 0)
(0 2.88068 0)
(0 2.88082 0)
(0 2.88097 0)
(0 2.88111 0)
(0 2.88125 0)
(0 2.88139 0)
(0 2.88154 0)
(0 2.88168 0)
(0 2.88182 0)
(0 2.88197 0)
(0 2.88211 0)
(0 2.88225 0)
(0 2.88239 0)
(0 2.88254 0)
(0 2.88268 0)
(0 2.88282 0)
(0 2.88296 0)
(0 2.8831 0)
(0 2.88325 0)
(0 2.88339 0)
(0 2.88353 0)
(0 2.88367 0)
(0 2.88381 0)
(0 2.88395 0)
(0 2.88409 0)
(0 2.88423 0)
(0 2.88438 0)
(0 2.88452 0)
(0 2.88466 0)
(0 2.8848 0)
(0 2.88494 0)
(0 2.88508 0)
(0 2.88522 0)
(0 2.88536 0)
(0 2.8855 0)
(0 2.88564 0)
(0 2.88578 0)
(0 2.88592 0)
(0 2.88606 0)
(0 2.8862 0)
(0 2.88634 0)
(0 2.88647 0)
(0 2.88661 0)
(0 2.88675 0)
(0 2.88689 0)
(0 2.88703 0)
(0 2.88717 0)
(0 2.88731 0)
(0 2.88745 0)
(0 2.88759 0)
(0 2.88771 0)
(0 2.88791 0)
)
;

boundaryField
{
    floor
    {
        type            flowRateInletVelocity;
        massFlowRate    constant 0.0722222;
        extrapolateProfile false;
        value           uniform (-0 2.87659 -0);
    }
    ceiling
    {
        type            fluxCorrectedVelocity;
        value           uniform (0 2.88794 0);
    }
    frontAndBack
    {
        type            empty;
    }
}


// ************************************************************************* //
